+----------------------------+
| Elk version 2.3.22 started |
+----------------------------+

Date (YYYY-MM-DD) : 2015-01-07
Time (hh:mm:ss)   : 21:21:00

All units are atomic (Hartree, Bohr, etc.)

+-------------------------------------------------------+
| Shift atoms using pred-Corr method according to force |
+-------------------------------------------------------+

Lattice vectors :
   2.708000000       2.708000000      -2.708000000    
   2.708000000      -2.708000000       2.708000000    
  -2.708000000       2.708000000       2.708000000    

Reciprocal lattice vectors :
   1.160115456       1.160115456      -0.000000000    
   1.160115456      -0.000000000       1.160115456    
  -0.000000000       1.160115456       1.160115456    

Unit cell volume      :    79.43391565    
Brillouin zone volume :    3.122724235    

Species :    1 (Fe)
 parameters loaded from : Fe.in
 name : iron
 nuclear charge    :   -26.00000000    
 electronic charge :    26.00000000    
 atomic mass :    101799.2074    
 muffin-tin radius :    2.295196793    
 number of radial points in muffin-tin :    497
 number on inner part of muffin-tin    :    421
 atomic positions (lattice), magnetic fields (Cartesian) :
   1 :   0.00000000  0.00000000  0.00000000    0.00000000  0.00000000  0.00000000

Total number of atoms per unit cell :    1

Spin treatment :
 spin-polarised
 global magnetic field (Cartesian) :    0.000000000       0.000000000       0.000000000    
 collinear magnetisation in z-direction

Number of Bravais lattice symmetries :   48
Number of crystal symmetries         :   48
Crystal has inversion symmetry
Real symmetric eigensolver will be used

k-point grid :      4     4     4
k-point offset :   0.5000000000      0.5000000000      0.5000000000    
k-point set is reduced with full crystal symmetry group
Total number of k-points :        6

Muffin-tin radius times maximum |G+k| :    7.000000000    
 using average radius
Maximum |G+k| for APW functions       :    3.049847412    
Maximum (1/2)|G+k|^2                  :    4.650784618    
Maximum |G| for potential and density :    12.00000000    
Constant for pseudocharge density :    7
Radial integration step length :    4

G-vector grid sizes :     18    18    18
Number of G-vectors :     2315

Maximum angular momentum used for
 APW functions                      :    8
 potential and density              :    7
 inner part of muffin-tin           :    3
 H and O matrix elements outer loop :    6

Total nuclear charge    :   -26.00000000    
Total core charge       :    10.00000000    
Total valence charge    :    16.00000000    
Total excess charge     :    0.000000000    
Total electronic charge :    26.00000000    

Effective Wigner radius, r_s :   0.9001495555    

Number of empty states         :   16
Total number of valence states :   50
Total number of core states    :   10

Total number of local-orbitals :   18

Exchange-correlation functional :      3     0     0
 Perdew-Wang/Ceperley-Alder, Phys. Rev. B 45, 13244 (1992)
 Local density approximation (LDA)

Smearing type :    3
 Fermi-Dirac
Smearing width :   0.1000000000E-02
Effective electronic temperature (K) :    315.7750425    

Mixing type :    3
 Broyden mixing, J. Phys. A: Math. Gen. 17, L317 (1984)

Density and potential initialised from atomic data

+------------------------------+
| Self-consistent loop started |
+------------------------------+

+--------------------+
| Loop number :    1 |
+--------------------+

Energies :
 Fermi                       :     0.219814740086    
 sum of eigenvalues          :     -737.197890995    
 electron kinetic            :      1285.63533225    
 core electron kinetic       :      1146.17769938    
 Coulomb                     :     -2502.00471693    
 Coulomb potential           :     -1952.11638533    
 nuclear-nuclear             :     -175.901054174    
 electron-nuclear            :     -2700.09094018    
 Hartree                     :      373.987277426    
 Madelung                    :     -1525.94652426    
 xc potential                :     -70.7168379243    
 xc effective B-field        :      0.00000000000    
 external B-field            :     -0.00000000000    
 exchange                    :     -51.2001513717    
 correlation                 :     -2.22575670597    
 electron entropic           :    -0.350980480061E-03
 total energy                :     -1269.79564373    
 (external B-field energy excluded from total)

Density of states at Fermi energy :    109.7035827    
 (states/Hartree/unit cell)

Estimated indirect band gap :   0.4230027527E-02
 from k-point      2 to k-point      3
Estimated direct band gap   :   0.5456914931E-02
 at k-point      2

Charges :
 core                        :    10.00000000    
 valence                     :    16.00000000    
 interstitial                :    1.183164409    
 muffin-tins (core leakage)
  species :    1 (Fe)
   atom    1                 :    24.81683559     ( -0.4334310688E-12)
 total in muffin-tins        :    24.81683559    
 total charge                :    26.00000000    

Moments :
 interstitial                :  -0.7967685583E-17
 muffin-tins
  species :    1 (Fe)
   atom    1                 :   0.5755795230E-17
 total in muffin-tins        :   0.5755795230E-17
 total moment                :  -0.2211890352E-17

Time (CPU seconds) :         0.92

+--------------------+
| Loop number :    2 |
+--------------------+

Energies :
 Fermi                       :     0.219971180872    
 sum of eigenvalues          :     -737.204556638    
 electron kinetic            :      1285.60672631    
 core electron kinetic       :      1146.15451988    
 Coulomb                     :     -2502.07331716    
 Coulomb potential           :     -1952.08608791    
 nuclear-nuclear             :     -175.901054174    
 electron-nuclear            :     -2700.25843807    
 Hartree                     :      374.086175077    
 Madelung                    :     -1526.03027321    
 xc potential                :     -70.7251950370    
 xc effective B-field        :      0.00000000000    
 external B-field            :     -0.00000000000    
 exchange                    :     -51.2062781970    
 correlation                 :     -2.22593679668    
 electron entropic           :    -0.351677817282E-03
 total energy                :     -1269.89915752    
 (external B-field energy excluded from total)

Density of states at Fermi energy :    109.8431918    
 (states/Hartree/unit cell)

Estimated indirect band gap :   0.4228638488E-02
 from k-point      2 to k-point      3
Estimated direct band gap   :   0.5441970831E-02
 at k-point      2

Charges :
 core                        :    10.00000000    
 valence                     :    16.00000000    
 interstitial                :    1.180642081    
 muffin-tins (core leakage)
  species :    1 (Fe)
   atom    1                 :    24.81935792     (  0.3229416734E-11)
 total in muffin-tins        :    24.81935792    
 total charge                :    26.00000000    

Moments :
 interstitial                :   0.3488378427E-18
 muffin-tins
  species :    1 (Fe)
   atom    1                 :  -0.2871330139E-16
 total in muffin-tins        :  -0.2871330139E-16
 total moment                :  -0.2836446355E-16

RMS change in Kohn-Sham potential (target) :   0.1694141071     (  0.1000000000E-05)
Absolute change in total energy (target)   :   0.1035137946     (  0.1000000000E-03)

Time (CPU seconds) :         1.51

+--------------------+
| Loop number :    3 |
+--------------------+

Energies :
 Fermi                       :     0.221944198624    
 sum of eigenvalues          :     -737.156133654    
 electron kinetic            :      1285.65074827    
 core electron kinetic       :      1145.87573177    
 Coulomb                     :     -2502.08900192    
 Coulomb potential           :     -1952.07983060    
 nuclear-nuclear             :     -175.901054174    
 electron-nuclear            :     -2700.29606490    
 Hartree                     :      374.108117148    
 Madelung                    :     -1526.04908662    
 xc potential                :     -70.7270513246    
 xc effective B-field        :      0.00000000000    
 external B-field            :      0.00000000000    
 exchange                    :     -51.2076394385    
 correlation                 :     -2.22597636289    
 electron entropic           :    -0.351845176195E-03
 total energy                :     -1269.87222130    
 (external B-field energy excluded from total)

Density of states at Fermi energy :    109.8764022    
 (states/Hartree/unit cell)

Estimated indirect band gap :   0.4226790672E-02
 from k-point      2 to k-point      3
Estimated direct band gap   :   0.5437286707E-02
 at k-point      2

Charges :
 core                        :    10.00000000    
 valence                     :    16.00000000    
 interstitial                :    1.180122369    
 muffin-tins (core leakage)
  species :    1 (Fe)
   atom    1                 :    24.81987763     (  0.3526068326E-11)
 total in muffin-tins        :    24.81987763    
 total charge                :    26.00000000    

Moments :
 interstitial                :  -0.1066709500E-17
 muffin-tins
  species :    1 (Fe)
   atom    1                 :   0.2723240504E-16
 total in muffin-tins        :   0.2723240504E-16
 total moment                :   0.2616569554E-16

RMS change in Kohn-Sham potential (target) :   0.1666071935     (  0.1000000000E-05)
Absolute change in total energy (target)   :   0.1057776537E-02 (  0.1000000000E-03)

Time (CPU seconds) :         2.12

+--------------------+
| Loop number :    4 |
+--------------------+

Energies :
 Fermi                       :     0.270277980816    
 sum of eigenvalues          :     -736.075550442    
 electron kinetic            :      1286.39061960    
 core electron kinetic       :      1146.07379886    
 Coulomb                     :     -2503.16462487    
 Coulomb potential           :     -1951.60823415    
 nuclear-nuclear             :     -175.901054174    
 electron-nuclear            :     -2702.91890724    
 Hartree                     :      375.655336544    
 Madelung                    :     -1527.36050779    
 xc potential                :     -70.8579358870    
 xc effective B-field        :      0.00000000000    
 external B-field            :     -0.00000000000    
 exchange                    :     -51.3035982919    
 correlation                 :     -2.22879198294    
 electron entropic           :    -0.367931702119E-03
 total energy                :     -1270.30676348    
 (external B-field energy excluded from total)

Density of states at Fermi energy :    113.3151788    
 (states/Hartree/unit cell)

Estimated indirect band gap :   0.4171694464E-02
 from k-point      2 to k-point      3
Estimated direct band gap   :   0.5178103547E-02
 at k-point      2

Charges :
 core                        :    10.00000000    
 valence                     :    16.00000000    
 interstitial                :    1.141607796    
 muffin-tins (core leakage)
  species :    1 (Fe)
   atom    1                 :    24.85839220     (  0.2060573934E-11)
 total in muffin-tins        :    24.85839220    
 total charge                :    26.00000000    

Moments :
 interstitial                :  -0.2934780256E-17
 muffin-tins
  species :    1 (Fe)
   atom    1                 :  -0.1621311582E-16
 total in muffin-tins        :  -0.1621311582E-16
 total moment                :  -0.1914789608E-16

RMS change in Kohn-Sham potential (target) :   0.6889431823E-01 (  0.1000000000E-05)
Absolute change in total energy (target)   :   0.4342777371     (  0.1000000000E-03)

Time (CPU seconds) :         2.74

+--------------------+
| Loop number :    5 |
+--------------------+

Energies :
 Fermi                       :     0.294872948054    
 sum of eigenvalues          :     -735.521189274    
 electron kinetic            :      1286.77124826    
 core electron kinetic       :      1146.20487154    
 Coulomb                     :     -2503.69024474    
 Coulomb potential           :     -1951.36979820    
 nuclear-nuclear             :     -175.901054174    
 electron-nuclear            :     -2704.20858292    
 Hartree                     :      376.419392361    
 Madelung                    :     -1528.00534564    
 xc potential                :     -70.9226393375    
 xc effective B-field        :      0.00000000000    
 external B-field            :      0.00000000000    
 exchange                    :     -51.3510331481    
 correlation                 :     -2.23018750310    
 electron entropic           :    -0.379573031534E-03
 total energy                :     -1270.50059670    
 (external B-field energy excluded from total)

Density of states at Fermi energy :    116.0238197    
 (states/Hartree/unit cell)

Estimated indirect band gap :   0.4147726387E-02
 from k-point      2 to k-point      3
Estimated direct band gap   :   0.5055830527E-02
 at k-point      2

Charges :
 core                        :    10.00000000    
 valence                     :    16.00000000    
 interstitial                :    1.122596568    
 muffin-tins (core leakage)
  species :    1 (Fe)
   atom    1                 :    24.87740343     ( -0.1136868377E-12)
 total in muffin-tins        :    24.87740343    
 total charge                :    26.00000000    

Moments :
 interstitial                :  -0.4137178377E-17
 muffin-tins
  species :    1 (Fe)
   atom    1                 :   0.1300560717E-16
 total in muffin-tins        :   0.1300560717E-16
 total moment                :   0.8868428788E-17

RMS change in Kohn-Sham potential (target) :   0.2004882580E-01 (  0.1000000000E-05)
Absolute change in total energy (target)   :   0.3024026506     (  0.1000000000E-03)

Time (CPU seconds) :         3.35

+--------------------+
| Loop number :    6 |
+--------------------+

Energies :
 Fermi                       :     0.302885016964    
 sum of eigenvalues          :     -735.339060536    
 electron kinetic            :      1286.89821911    
 core electron kinetic       :      1146.25047143    
 Coulomb                     :     -2503.85302267    
 Coulomb potential           :     -1951.29446474    
 nuclear-nuclear             :     -175.901054174    
 electron-nuclear            :     -2704.60947224    
 Hartree                     :      376.657503753    
 Madelung                    :     -1528.20579030    
 xc potential                :     -70.9428149118    
 xc effective B-field        :      0.00000000000    
 external B-field            :      0.00000000000    
 exchange                    :     -51.3658233878    
 correlation                 :     -2.23062353530    
 electron entropic           :    -0.383548130455E-03
 total energy                :     -1270.55163402    
 (external B-field energy excluded from total)

Density of states at Fermi energy :    116.9828732    
 (states/Hartree/unit cell)

Estimated indirect band gap :   0.4142963140E-02
 from k-point      2 to k-point      3
Estimated direct band gap   :   0.5020519932E-02
 at k-point      2

Charges :
 core                        :    10.00000000    
 valence                     :    16.00000000    
 interstitial                :    1.116648334    
 muffin-tins (core leakage)
  species :    1 (Fe)
   atom    1                 :    24.88335167     (  0.5329070518E-13)
 total in muffin-tins        :    24.88335167    
 total charge                :    26.00000000    

Moments :
 interstitial                :  -0.8039467466E-18
 muffin-tins
  species :    1 (Fe)
   atom    1                 :   0.1016648774E-16
 total in muffin-tins        :   0.1016648774E-16
 total moment                :   0.9362540994E-17

RMS change in Kohn-Sham potential (target) :   0.4486386158E-02 (  0.1000000000E-05)
Absolute change in total energy (target)   :   0.1266379895     (  0.1000000000E-03)

Time (CPU seconds) :         3.97

+--------------------+
| Loop number :    7 |
+--------------------+

Energies :
 Fermi                       :     0.305224149149    
 sum of eigenvalues          :     -735.285756240    
 electron kinetic            :      1286.93535455    
 core electron kinetic       :      1146.26802462    
 Coulomb                     :     -2503.89987874    
 Coulomb potential           :     -1951.27245885    
 nuclear-nuclear             :     -175.901054174    
 electron-nuclear            :     -2704.72519028    
 Hartree                     :      376.726365717    
 Madelung                    :     -1528.26364931    
 xc potential                :     -70.9486519398    
 xc effective B-field        :      0.00000000000    
 external B-field            :      0.00000000000    
 exchange                    :     -51.3701021500    
 correlation                 :     -2.23074996726    
 electron entropic           :    -0.384601715581E-03
 total energy                :     -1270.56576091    
 (external B-field energy excluded from total)

Density of states at Fermi energy :    117.2377138    
 (states/Hartree/unit cell)

Estimated indirect band gap :   0.4143282056E-02
 from k-point      2 to k-point      3
Estimated direct band gap   :   0.5011889289E-02
 at k-point      2

Charges :
 core                        :    10.00000000    
 valence                     :    16.00000000    
 interstitial                :    1.114910720    
 muffin-tins (core leakage)
  species :    1 (Fe)
   atom    1                 :    24.88508928     (  0.3211653166E-11)
 total in muffin-tins        :    24.88508928    
 total charge                :    26.00000000    

Moments :
 interstitial                :   0.1490123873E-17
 muffin-tins
  species :    1 (Fe)
   atom    1                 :   0.1462782174E-16
 total in muffin-tins        :   0.1462782174E-16
 total moment                :   0.1611794561E-16

RMS change in Kohn-Sham potential (target) :   0.7376770985E-04 (  0.1000000000E-05)
Absolute change in total energy (target)   :   0.4578638494E-01 (  0.1000000000E-03)

Time (CPU seconds) :         4.61

+--------------------+
| Loop number :    8 |
+--------------------+

Energies :
 Fermi                       :     0.305252606413    
 sum of eigenvalues          :     -735.284834898    
 electron kinetic            :      1286.93651178    
 core electron kinetic       :      1146.26846296    
 Coulomb                     :     -2503.89871621    
 Coulomb potential           :     -1951.27282276    
 nuclear-nuclear             :     -175.901054174    
 electron-nuclear            :     -2704.72250132    
 Hartree                     :      376.724839282    
 Madelung                    :     -1528.26230484    
 xc potential                :     -70.9485239245    
 xc effective B-field        :      0.00000000000    
 external B-field            :      0.00000000000    
 exchange                    :     -51.3700081464    
 correlation                 :     -2.23074739915    
 electron entropic           :    -0.384457982261E-03
 total energy                :     -1270.56334443    
 (external B-field energy excluded from total)

Density of states at Fermi energy :    117.2006209    
 (states/Hartree/unit cell)

Estimated indirect band gap :   0.4144761550E-02
 from k-point      2 to k-point      3
Estimated direct band gap   :   0.5013440413E-02
 at k-point      2

Charges :
 core                        :    10.00000000    
 valence                     :    16.00000000    
 interstitial                :    1.114934174    
 muffin-tins (core leakage)
  species :    1 (Fe)
   atom    1                 :    24.88506583     (  0.4719780122E-11)
 total in muffin-tins        :    24.88506583    
 total charge                :    26.00000000    

Moments :
 interstitial                :   0.4500165975E-18
 muffin-tins
  species :    1 (Fe)
   atom    1                 :   0.1153221858E-16
 total in muffin-tins        :   0.1153221858E-16
 total moment                :   0.1198223517E-16

RMS change in Kohn-Sham potential (target) :   0.1444869675E-04 (  0.1000000000E-05)
Absolute change in total energy (target)   :   0.9030119924E-02 (  0.1000000000E-03)

Time (CPU seconds) :         5.20

+--------------------+
| Loop number :    9 |
+--------------------+

Energies :
 Fermi                       :     0.305261518703    
 sum of eigenvalues          :     -735.284615165    
 electron kinetic            :      1286.93667566    
 core electron kinetic       :      1146.26852762    
 Coulomb                     :     -2503.89867442    
 Coulomb potential           :     -1951.27276455    
 nuclear-nuclear             :     -175.901054174    
 electron-nuclear            :     -2704.72247595    
 Hartree                     :      376.724855697    
 Madelung                    :     -1528.26229215    
 xc potential                :     -70.9485262693    
 xc effective B-field        :      0.00000000000    
 external B-field            :      0.00000000000    
 exchange                    :     -51.3700097814    
 correlation                 :     -2.23074755477    
 electron entropic           :    -0.384383607483E-03
 total energy                :     -1270.56314049    
 (external B-field energy excluded from total)

Density of states at Fermi energy :    117.1812152    
 (states/Hartree/unit cell)

Estimated indirect band gap :   0.4145675408E-02
 from k-point      2 to k-point      3
Estimated direct band gap   :   0.5014279227E-02
 at k-point      2

Charges :
 core                        :    10.00000000    
 valence                     :    16.00000000    
 interstitial                :    1.114924957    
 muffin-tins (core leakage)
  species :    1 (Fe)
   atom    1                 :    24.88507504     ( -0.6199485370E-12)
 total in muffin-tins        :    24.88507504    
 total charge                :    26.00000000    

Moments :
 interstitial                :  -0.4734950756E-18
 muffin-tins
  species :    1 (Fe)
   atom    1                 :   0.6090507714E-17
 total in muffin-tins        :   0.6090507714E-17
 total moment                :   0.5617012638E-17

RMS change in Kohn-Sham potential (target) :   0.8310983892E-05 (  0.1000000000E-05)
Absolute change in total energy (target)   :   0.2053583238E-02 (  0.1000000000E-03)

Time (CPU seconds) :         5.84

+--------------------+
| Loop number :   10 |
+--------------------+

Energies :
 Fermi                       :     0.305271782351    
 sum of eigenvalues          :     -735.284376052    
 electron kinetic            :      1286.93691920    
 core electron kinetic       :      1146.26873619    
 Coulomb                     :     -2503.89854256    
 Coulomb potential           :     -1951.27278015    
 nuclear-nuclear             :     -175.901054174    
 electron-nuclear            :     -2704.72219661    
 Hartree                     :      376.724708227    
 Madelung                    :     -1528.26215248    
 xc potential                :     -70.9485151017    
 xc effective B-field        :    -0.886400320021E-34
 external B-field            :      0.00000000000    
 exchange                    :     -51.3700015169    
 correlation                 :     -2.23074741045    
 electron entropic           :    -0.384292214121E-03
 total energy                :     -1270.56275657    
 (external B-field energy excluded from total)

Density of states at Fermi energy :    117.1574367    
 (states/Hartree/unit cell)

Estimated indirect band gap :   0.4146762962E-02
 from k-point      2 to k-point      3
Estimated direct band gap   :   0.5015304647E-02
 at k-point      2

Charges :
 core                        :    10.00000000    
 valence                     :    16.00000000    
 interstitial                :    1.114919124    
 muffin-tins (core leakage)
  species :    1 (Fe)
   atom    1                 :    24.88508088     ( -0.2842170943E-12)
 total in muffin-tins        :    24.88508088    
 total charge                :    26.00000000    

Moments :
 interstitial                :  -0.1321530350E-17
 muffin-tins
  species :    1 (Fe)
   atom    1                 :   0.3526803832E-16
 total in muffin-tins        :   0.3526803832E-16
 total moment                :   0.3394650797E-16

RMS change in Kohn-Sham potential (target) :   0.3614546399E-05 (  0.1000000000E-05)
Absolute change in total energy (target)   :   0.1294801757E-03 (  0.1000000000E-03)

Time (CPU seconds) :         6.45

+--------------------+
| Loop number :   11 |
+--------------------+

Energies :
 Fermi                       :     0.305272314183    
 sum of eigenvalues          :     -735.284382119    
 electron kinetic            :      1286.93691792    
 core electron kinetic       :      1146.26873734    
 Coulomb                     :     -2503.89859122    
 Coulomb potential           :     -1951.27278082    
 nuclear-nuclear             :     -175.901054174    
 electron-nuclear            :     -2704.72229327    
 Hartree                     :      376.724756225    
 Madelung                    :     -1528.26220081    
 xc potential                :     -70.9485192139    
 xc effective B-field        :    -0.132905805889E-31
 external B-field            :     -0.00000000000    
 exchange                    :     -51.3700045435    
 correlation                 :     -2.23074748416    
 electron entropic           :    -0.384294139773E-03
 total energy                :     -1270.56280963    
 (external B-field energy excluded from total)

Density of states at Fermi energy :    117.1579282    
 (states/Hartree/unit cell)

Estimated indirect band gap :   0.4146744687E-02
 from k-point      2 to k-point      3
Estimated direct band gap   :   0.5015284441E-02
 at k-point      2

Charges :
 core                        :    10.00000000    
 valence                     :    16.00000000    
 interstitial                :    1.114918524    
 muffin-tins (core leakage)
  species :    1 (Fe)
   atom    1                 :    24.88508148     ( -0.2806643806E-12)
 total in muffin-tins        :    24.88508148    
 total charge                :    26.00000000    

Moments :
 interstitial                :  -0.1432814852E-15
 muffin-tins
  species :    1 (Fe)
   atom    1                 :  -0.1385375340E-14
 total in muffin-tins        :  -0.1385375340E-14
 total moment                :  -0.1528656825E-14

RMS change in Kohn-Sham potential (target) :   0.1002870708E-05 (  0.1000000000E-05)
Absolute change in total energy (target)   :   0.8542420596E-04 (  0.1000000000E-03)

Time (CPU seconds) :         7.08

+--------------------+
| Loop number :   12 |
+--------------------+

Energies :
 Fermi                       :     0.305272589386    
 sum of eigenvalues          :     -735.284383578    
 electron kinetic            :      1286.93691946    
 core electron kinetic       :      1146.26873468    
 Coulomb                     :     -2503.89861223    
 Coulomb potential           :     -1951.27278216    
 nuclear-nuclear             :     -175.901054174    
 electron-nuclear            :     -2704.72233395    
 Hartree                     :      376.724775895    
 Madelung                    :     -1528.26222115    
 xc potential                :     -70.9485208779    
 xc effective B-field        :    -0.138474316295E-27
 external B-field            :     -0.00000000000    
 exchange                    :     -51.3700057698    
 correlation                 :     -2.23074751205    
 electron entropic           :    -0.384295847425E-03
 total energy                :     -1270.56283035    
 (external B-field energy excluded from total)

Density of states at Fermi energy :    117.1583692    
 (states/Hartree/unit cell)

Estimated indirect band gap :   0.4146725830E-02
 from k-point      2 to k-point      3
Estimated direct band gap   :   0.5015265862E-02
 at k-point      2

Charges :
 core                        :    10.00000000    
 valence                     :    16.00000000    
 interstitial                :    1.114918405    
 muffin-tins (core leakage)
  species :    1 (Fe)
   atom    1                 :    24.88508160     (  0.4902744877E-12)
 total in muffin-tins        :    24.88508160    
 total charge                :    26.00000000    

Moments :
 interstitial                :  -0.1571397172E-14
 muffin-tins
  species :    1 (Fe)
   atom    1                 :  -0.8046869692E-13
 total in muffin-tins        :  -0.8046869692E-13
 total moment                :  -0.8204009410E-13

RMS change in Kohn-Sham potential (target) :   0.9196444021E-07 (  0.1000000000E-05)
Absolute change in total energy (target)   :   0.4207779648E-04 (  0.1000000000E-03)

Convergence targets achieved

Time (CPU seconds) :         7.72

+--------------------+
| Loop number :   13 |
+--------------------+

Energies :
 Fermi                       :     0.305272693528    
 sum of eigenvalues          :     -735.284382359    
 electron kinetic            :      1286.93692157    
 core electron kinetic       :      1146.26873338    
 Coulomb                     :     -2503.89861557    
 Coulomb potential           :     -1951.27278283    
 nuclear-nuclear             :     -175.901054174    
 electron-nuclear            :     -2704.72233996    
 Hartree                     :      376.724778566    
 Madelung                    :     -1528.26222415    
 xc potential                :     -70.9485211023    
 xc effective B-field        :    -0.177317822534E-27
 external B-field            :     -0.00000000000    
 exchange                    :     -51.3700059359    
 correlation                 :     -2.23074751493    
 electron entropic           :    -0.384296443075E-03
 total energy                :     -1270.56283174    
 (external B-field energy excluded from total)

Density of states at Fermi energy :    117.1585241    
 (states/Hartree/unit cell)

Estimated indirect band gap :   0.4146718788E-02
 from k-point      2 to k-point      3
Estimated direct band gap   :   0.5015259305E-02
 at k-point      2

Charges :
 core                        :    10.00000000    
 valence                     :    16.00000000    
 interstitial                :    1.114918438    
 muffin-tins (core leakage)
  species :    1 (Fe)
   atom    1                 :    24.88508156     ( -0.3161915174E-12)
 total in muffin-tins        :    24.88508156    
 total charge                :    26.00000000    

Moments :
 interstitial                :  -0.1990159268E-14
 muffin-tins
  species :    1 (Fe)
   atom    1                 :  -0.9265177307E-13
 total in muffin-tins        :  -0.9265177307E-13
 total moment                :  -0.9464193234E-13

+------------------------------+
| Self-consistent loop stopped |
+------------------------------+

Wrote STATE.OUT

Forces :
 species :    1 (Fe)
  atom :    1
   Hellmann-Feynman          :     0.00000000    0.00000000    0.00000000
   IBS                       :    -0.00000000    0.00000000    0.00000000
   total force               :     0.00000000    0.00000000    0.00000000
   total magnitude           :     0.00000000

Timings (CPU seconds) :
 initialisation                        :         0.28
 Hamiltonian and overlap matrix set up :         2.24
 first-variational eigenvalue equation :         0.34
 second-variational calculation        :         3.33
 charge density calculation            :         1.58
 potential calculation                 :         0.58
 force calculation                     :         0.09
 total                                 :         8.43

+----------------------------+
| Elk version 2.3.22 stopped |
+----------------------------+
